72
Lattice="9.832 0.0 0.0 -4.916 8.515 0.0 0.0 0.0 10.811" Properties=species:S:1:pos:R:3:forces:R:3 energy=-619.61687 pbc="T T T"
Si      -2.47478000       8.47134000      10.75545000       0.02910000       0.97188500      -0.73240900 
Si      -1.10862000       2.14479000       3.63735000      -0.06622000       2.08523700      -0.17453600 
Si       1.32412000       1.97287000       1.91869000      -0.61452800      -0.83360600      -0.11576200 
Si       2.58515000       8.31896000      10.74028000       0.97007200       0.24905800      -0.18132600 
Si       3.83971000       2.25043000       3.66264000      -0.84797900      -0.22922300      -2.25324800 
Si       6.24360000       1.73062000       1.81242000      -1.71018100       0.57682400      -1.20451300 
Si       0.03782000       4.11923000      10.78746000       0.27042200       0.14717700       0.99322300 
Si      -3.73278000       6.70364000       3.72923000       2.02829600      -0.47137600      -0.38022100 
Si      -1.29559000       6.30118000       1.77606000       0.58540400       0.55504400      -0.34216400 
Si       5.11252000       4.14556000       0.16044000       0.69824900      -0.29342600      -2.80948700 
Si       1.29953000       6.48161000       3.49406000      -0.94948300       0.90608800      -0.65400200 
Si       3.80538000       6.30223000       1.81353000      -0.16880900       1.63882600       0.14917100 
Si       2.60411000       0.22459000       5.55921000      -1.12049900      -0.63873700       0.06271900 
Si       8.40088000       2.21512000       9.07898000      -0.57445000      -0.13767600      -0.38413400 
Si       1.04073000       2.22192000       7.19926000       0.39459900      -0.46609900       0.02528900 
Si       7.51590000       0.07384000       5.43345000      -1.41828000       0.13788000      -0.47165600 
Si       3.49435000       2.29625000       8.88729000      -0.46885700       0.21300600       1.05797500 
Si       5.94890000       2.08123000       7.23707000      -1.34228700      -0.68133100      -1.22548700 
Si       0.11347000       4.35314000       5.20181000      -1.37186800       0.29855700       0.37298700 
Si       5.99994000       6.43031000       9.08992000      -1.37236600      -1.35612300      -1.74168000 
Si      -1.34202000       6.32318000       7.12907000      -0.90446300       0.82488200       0.77431400 
Si       5.14108000       4.33941000       5.37813000       0.27383200       0.55537300       1.81558900 
Si       1.06536000       6.26036000       8.95844000       1.16194400       0.00976500      -2.56217500 
Si       3.51434000       6.26391000       7.16891000       0.33708000      -0.20228800      -0.05167800 
O       1.55891000       0.59806000       1.11986000       0.54592100       0.90993200       0.17841600 
O       0.17247000       1.57110000       2.96631000       0.70424500       0.20990300      -0.98260900 
O       3.51588000       1.30356000       4.83649000      -0.72185500      -0.75532500       1.21673500 
O       0.87513000       3.03877000       0.83758000      -0.47160600       0.85080000      -1.02590600 
O       2.50925000       2.59246000       2.76293000       1.14141600      -0.28968700       0.42382700 
O      -0.83781000       3.73526000       4.07052000      -0.30855300      -1.73458900      -0.36011000 
O       6.45236000       0.34381000       1.00307000      -0.42551200       0.73307600       0.54393000 
O       4.92906000       1.57009000       2.72761000       0.29064100      -0.22814900      -0.64593700 
O       8.43836000       1.22828000       4.83810000      -0.09102100      -0.92325800       1.60532600 
O       6.03882000       3.06310000       0.82478000       0.28937200      -1.56372700       0.98150800 
O       7.43787000       2.05486000       2.72590000       1.00979100       0.60605100       0.13400900 
O       4.38566000       3.58552000       4.20528000       0.69564200       1.37178800       0.45524000 
O      -0.84022000       4.92031000       1.03677000      -0.40511400       1.61077500       0.82995400 
O      -2.67318000       6.24861000       2.55064000      -0.92912000      -0.17287300       0.69561500 
O       1.16408000       5.29454000       4.53798000       0.74743600       0.57421200      -0.45220800 
O      -1.48154000       7.51955000       0.69244000       1.05367500      -1.60788300       0.12747500 
O      -0.16406000       6.73207000       2.83736000       0.39665600      -0.15651800       0.01136200 
O      -3.28752000       8.08700000       4.39561000       0.55750500      -0.08638100       0.60149200 
O       4.26987000       4.94645000       1.20402000      -0.27879500      -0.71829500       0.51318200 
O       2.30910000       6.24005000       2.28253000      -0.88824200      -0.97678600       0.66951000 
O       6.05810000       5.50633000       4.78223000       0.29375800      -0.35221400       0.50342300 
O       3.74323000       7.41113000       0.63283000      -0.39833300       0.16772000      -0.36147100 
O       4.67480000       6.75992000       3.10829000      -1.43719500       0.25057500      -1.53100300 
O       1.77972000       7.77828000       4.26761000       0.64394400       0.90116400       0.77873600 
O       1.61953000       0.75107000       6.76217000       0.28025000       1.00525100      -1.16693100 
O      -0.37627000       1.91356000       7.89853000      -0.10545800       0.19926100       0.16440200 
O       3.36745000       0.98310000       9.84318000      -1.27216600      -0.23362400       0.59078100 
O       0.96755000       3.32049000       6.00408000       0.25034900      -2.13049600       1.07224100 
O       2.07492000       2.82281000       8.27162000       0.40734500      -0.26183300       0.87483400 
O      -1.08310000       3.57520000       9.81019000       0.38522600      -0.11600100      -0.61941800 
O       6.38752000       0.85622000       6.29401000       0.25858100      -0.74622200       0.44977400 
O       4.32317000       1.88162000       7.59864000       2.49861400       0.03452000      -0.23105000 
O       8.28970000       1.16878000      10.26873000      -0.06410200      -1.69327600      -0.26984900 
O       6.07230000       3.37597000       6.33157000      -0.82920300       1.37277000      -1.44723700 
O       6.92964000       2.28137000       8.44069000       0.16581300      -0.01864600       0.58839600 
O       4.25506000       3.43173000       9.76234000      -0.60302500      -0.02910300       0.33060200 
O      -0.89265000       5.07104000       6.25290000       0.08458900       0.42501200       0.25816800 
O      -2.77444000       6.12758000       7.90005000       0.30203800      -0.04741000      -0.50424700 
O       1.07931000       5.01038000       9.92968000      -0.42746100      -0.07929400       0.73666600 
O      -1.33740000       7.66351000       6.19868000      -0.12860200      -1.09391700       0.29712300 
O      -0.38076000       6.65919000       8.38870000       0.68569000      -0.59120600      -0.00424100 
O      -3.60464000       7.76645000       9.83544000       1.30118600       1.39529000       0.56958700 
O       4.00210000       4.99527000       6.33065000       0.65933400      -0.25304100      -0.54494500 
O       2.03103000       5.84960000       7.61420000      -1.06782300       0.84899100       1.72309800 
O       5.99912000       5.24658000      10.16441000       0.05330500      -0.37699600       0.22201900 
O       3.53231000       7.58904000       6.22210000      -0.17284000      -0.46255200       0.53711800 
O       4.50524000       6.58339000       8.39132000       0.57874800      -0.32996400       0.34109900 
O       1.72129000       7.56702000       9.57792000       0.94927900       0.69943700       1.13182600 
72
Lattice="9.832 0.0 0.0 -4.916 8.515 0.0 0.0 0.0 10.811" Properties=species:S:1:pos:R:3:forces:R:3 energy=-620.17522 pbc="T T T"
Si      -2.47511000       8.50700000      10.76107000       0.24853100      -0.00865700       1.10235000 
Si      -1.09321000       2.19698000       3.67558000      -0.81495100      -1.79808000       0.05222300 
Si       1.29089000       2.00472000       1.92279000      -0.03565800       0.71162700      -0.80694000 
Si       2.61120000       8.32791000      10.70779000      -1.09699200       0.28751800       0.98583400 
Si       3.81809000       2.22095000       3.58089000       0.77400500       1.46478500       1.87333800 
Si       6.20489000       1.73246000       1.80589000       0.41262500       0.36885900      -0.09984900 
Si       0.01353000       4.13846000      10.78319000      -0.39040800       0.46722000       0.22156100 
Si      -3.68552000       6.71161000       3.74060000      -1.37545400      -1.11542200       0.00202000 
Si      -1.28688000       6.30290000       1.78752000       0.10824800       1.50920100      -0.28766000 
Si       5.12232000       4.18078000       0.09999000       0.29719400      -1.87168800       0.65521100 
Si       1.32195000       6.47943000       3.46059000      -0.68758700       1.37697900      -0.01300000 
Si       3.81902000       6.31696000       1.82811000      -1.42582100       0.35820600      -0.92699000 
Si       2.56454000       0.19860000       5.51678000      -0.20356200       0.14485900       2.30887300 
Si       8.36503000       2.26136000       9.03399000      -0.01102100      -1.61504400       0.60544400 
Si       1.05815000       2.20816000       7.19282000       0.11374500      -0.30605500       1.37700600 
Si       7.43691000       0.07501000       5.40034000       1.27737200       0.18480100       1.17276500 
Si       3.52083000       2.30439000       8.94382000      -0.21337800      -0.22415100      -1.19535500 
Si       5.94041000       2.07225000       7.19938000       0.65207400       0.59397000      -0.25408000 
Si       0.11429000       4.40551000       5.18242000      -0.27285000      -0.97398400       1.56351600 
Si       6.01659000       6.39974000       9.08786000      -0.89749400      -0.05993600      -0.35880500 
Si      -1.35290000       6.35405000       7.17199000      -0.06537300       0.77458200       0.11845500 
Si       5.22493000       4.35423000       5.41960000      -1.80569500       0.60280400      -1.22028400 
Si       1.12873000       6.20903000       8.91619000      -0.65740000       0.95965200       0.47587700 
Si       3.50976000       6.22055000       7.17507000       0.35314900       0.49923000      -0.12879600 
O       1.60250000       0.67303000       1.16643000       1.11207700      -0.47281700      -1.06024700 
O       0.12946000       1.52777000       2.88208000      -0.40194400       0.88094700       0.54966400 
O       3.49065000       1.25368000       4.84538000       0.32489400       1.03493100      -1.05876900 
O       0.84711000       3.08584000       0.78825000       0.29093500      -0.77437900       0.85341900 
O       2.52447000       2.62666000       2.75766000      -0.64833900      -0.35049600      -0.49491400 
O      -0.83533000       3.72106000       4.02369000       0.93924100       0.69391700       1.20392500 
O       6.39979000       0.37466000       0.99798000       1.16535600      -0.46179900      -0.58443900 
O       4.91548000       1.50770000       2.69945000      -0.62100700      -0.14029400       0.29737300 
O       8.49150000       1.22503000       4.95490000      -0.21339800       0.42532800      -0.50617200 
O       5.93425000       2.98464000       0.84739000       0.00727100       0.67122600      -0.39359800 
O       7.42996000       2.09057000       2.79658000      -0.58504500       0.10255000      -0.81788600 
O       4.38256000       3.63505000       4.23290000       0.24349700      -1.36854300      -0.51735100 
O      -0.85298000       4.99888000       0.99823000      -0.45366800       0.23023200       0.57773700 
O      -2.67653000       6.27379000       2.61875000       1.13662200      -0.40687800      -1.01850900 
O       1.22008000       5.29858000       4.50192000      -0.26689200      -0.20200700       0.45832200 
O      -1.47942000       7.51233000       0.71567000       0.17875600      -0.52472100      -0.32703700 
O      -0.08547000       6.72900000       2.76428000      -0.78049500      -0.06735900       0.33944900 
O      -3.29354000       8.04384000       4.48312000      -0.97832300      -0.60947900      -1.56499500 
O       4.27808000       4.94441000       1.21224000       0.41825800      -0.58400900      -0.41726400 
O       2.31285000       6.16280000       2.32522000       0.63863800      -0.75994000      -0.67419000 
O       6.11567000       5.49967000       4.78614000       0.49948200       0.19576900       0.32801700 
O       3.68504000       7.36333000       0.59625000       0.34689700       0.19346800       0.36009700 
O       4.62843000       6.71834000       3.10184000       1.74342300       1.04142000       0.62851200 
O       1.79551000       7.80811000       4.23674000      -0.29620800       0.17154900      -0.12957600 
O       1.55954000       0.78347000       6.67276000       0.65363100       0.33427800      -0.74246500 
O      -0.33437000       1.89145000       7.97891000       0.16455300       0.37500200      -0.68806600 
O       3.28985000       0.99227000       9.84190000      -0.02240200       0.08942600       0.24990700 
O       0.99459000       3.31169000       6.04854000      -1.14717100       0.28043900      -0.88551800 
O       2.09985000       2.77212000       8.32940000       0.09591000      -0.25686600      -0.09476100 
O      -1.09201000       3.58001000       9.77434000       0.38154500       0.72215600       0.18123600 
O       6.39284000       0.80552000       6.38969000       0.22777000      -0.92428000      -0.76690000 
O       4.43062000       1.90519000       7.58947000      -1.32989300       0.26809100       2.14012100 
O       8.23976000       1.14128000      10.20402000       0.62657300      -0.45533900      -0.52051400 
O       6.08249000       3.41928000       6.31400000       0.79871000      -0.95281400       0.31813100 
O       6.89514000       2.28033000       8.46399000      -0.47202300       0.38874700      -0.57750200 
O       4.20576000       3.45490000       9.81620000      -0.66541400      -0.20136900      -0.46822900 
O      -0.86322000       5.13664000       6.26494000       0.37959300      -0.53644300      -0.57986400 
O      -2.80655000       6.22213000       7.83979000      -0.17989100      -0.64100400       0.58399100 
O       1.05847000       4.99825000       9.95253000      -0.01546500       0.46688000      -0.05749500 
O      -1.43338000       7.62705000       6.21761000       0.38369700      -0.10578700      -0.12251100 
O      -0.32807000       6.65859000       8.36967000       0.26920800      -0.56081800       0.14767800 
O      -3.59269000       7.76603000       9.90930000       0.32266600      -0.72751800      -0.67029500 
O       4.04512000       5.00687000       6.28398000      -0.15435100       0.51320200       0.92053900 
O       1.99157000       5.78467000       7.66559000       1.85973100       0.41933500      -0.72157900 
O       6.10428000       5.13486000      10.13859000       0.48733200       1.46659900      -1.04002800 
O       3.47834000       7.56594000       6.22839000      -0.71314300      -0.78681000       0.76250500 
O       4.51543000       6.53822000       8.45973000      -0.49376200      -0.63409300      -0.68056800 
O       1.74567000       7.50840000       9.62932000       0.45625600       0.17395800       0.03338000 
72
Lattice="9.832 0.0 0.0 -4.916 8.515 0.0 0.0 0.0 10.811" Properties=species:S:1:pos:R:3:forces:R:3 energy=-619.95941 pbc="T T T"
Si       2.43910000       0.01263000      10.76841000       0.90515900      -1.39391500       1.81737100 
Si      -1.09667000       2.20605000       3.68920000      -0.82166500      -2.36663000       0.03545100 
Si       1.27418000       2.02107000       1.91505000       0.61673000       0.55385200      -0.71839700 
Si       2.61177000       8.33644000      10.70428000      -1.25900900      -0.24599400       1.46368700 
Si       3.81499000       2.22623000       3.56511000       0.88624400       1.31399300       2.11716900 
Si       6.18934000       1.74132000       1.79669000       0.73169900      -0.61854800       0.78894700 
Si       0.00419000       4.14734000      10.78289000      -0.84860600       1.11508200       0.95428900 
Si      -3.67665000       6.70259000       3.74493000      -1.52541700      -1.56022800      -0.61634700 
Si      -1.27942000       6.32047000       1.78542000      -0.37300500       1.60002700       0.40567200 
Si       5.13083000       4.17154000       0.07397000       0.34785000      -1.22025700       1.38049000 
Si       1.31971000       6.49498000       3.44616000      -0.37089700       0.91487200       0.25182100 
Si       3.80740000       6.33341000       1.82508000      -0.67244700      -0.67087300      -0.89713300 
Si       2.54221000       0.18815000       5.53033000       0.58322200       0.36620500       0.55782700 
Si       8.34840000       2.25986000       9.02032000       0.58636500      -1.25568000       1.18409400 
Si       1.06705000       2.19751000       7.20540000      -0.01679500       0.42579100       1.10304500 
Si       7.41515000       0.07949000       5.39946000       2.48593800      -0.35088800       1.19309400 
Si       3.52729000       2.30794000       8.95198000      -0.28626200      -0.85526700      -0.71215200 
Si       5.93615000       2.07372000       7.18217000       1.43186100       0.30233000      -0.45733600 
Si       0.10414000       4.41318000       5.19612000       0.91311100      -0.77061900       0.79675500 
Si       6.00732000       6.37845000       9.07525000      -0.34158100       1.17042800       0.48751700 
Si      -1.36239000       6.37980000       7.19175000       0.65153500      -0.59637800      -0.09833800 
Si       5.23764000       4.36621000       5.43114000      -2.01671600       0.65323400      -2.38090800 
Si       1.14722000       6.19908000       8.89119000      -0.69349200       1.24497200       2.55198000 
Si       3.51348000       6.20993000       7.17672000       0.24142700       0.58023400      -0.07470200 
O       1.64302000       0.69389000       1.16204000       0.59803500      -0.05418300      -0.41281800 
O       0.11303000       1.52929000       2.85413000      -0.71698400       0.87098200       0.89063700 
O       3.48720000       1.25653000       4.83012000      -0.20344200       0.20349000      -0.42744100 
O       0.83956000       3.09412000       0.77980000       0.16505300      -0.77360400       0.92333400 
O       2.52859000       2.63126000       2.75201000      -1.19228000      -0.28694500      -0.76097800 
O      -0.81895000       3.71728000       4.02626000       0.87510300       0.88418100       1.25916000 
O       6.40114000       0.37963000       0.98608000       1.14882500      -0.23512400      -0.28918700 
O       4.90010000       1.48111000       2.69146000      -0.40619300      -0.02842200       0.23594800 
O       8.50453000       1.22394000       4.99968000      -0.26070100       0.72091800      -1.10857000 
O       5.90020000       2.95339000       0.85976000      -0.09825200       1.77577700      -1.39529600 
O       7.42252000       2.10908000       2.80881000      -0.81994900      -0.04607200      -0.88552500 
O       4.38779000       3.63142000       4.23375000       0.48000400      -1.14259600      -0.25458200 
O      -0.87505000       5.05190000       1.00827000       0.49238500      -1.93119200      -0.74013400 
O      -2.66123000       6.27465000       2.62802000       0.98983200      -0.35775100      -0.86640600 
O       1.24424000       5.30454000       4.49032000      -0.94179100      -0.50535100       0.88996000 
O      -1.46348000       7.48106000       0.72660000      -0.60936600       1.27530800      -1.45536300 
O      -0.07089000       6.72444000       2.74182000      -0.54233300       0.24502000       0.73902200 
O      -3.31363000       8.01293000       4.48491000      -0.37101300       0.43220700      -0.74508100 
O       4.28643000       4.92769000       1.21149000       0.56249700       0.01684500      -0.58206500 
O       2.32232000       6.11470000       2.33129000       0.40099400      -0.38843700      -0.50789900 
O       6.14858000       5.49979000       4.79546000       0.23486100      -0.11780600       0.47998100 
O       3.66754000       7.35064000       0.58738000       0.56452800       0.35470800       0.47088900 
O       4.63642000       6.72353000       3.10266000       1.53448500       0.90077000       0.39645700 
O       1.80096000       7.83038000       4.23095000      -0.54359400      -0.23432900      -0.69578400 
O       1.55262000       0.80686000       6.61720000       0.26579000       0.26524000       0.16170800 
O      -0.31581000       1.89184000       7.99523000      -0.13579000       0.28967500      -0.58048200 
O       3.25074000       0.98944000       9.85438000       0.91978800       1.00086300      -0.57928500 
O       0.98360000       3.30279000       6.05328000      -1.04077700       0.28655800      -0.62715800 
O       2.11455000       2.74762000       8.35507000      -0.47047500      -0.15920700      -0.72505800 
O      -1.08304000       3.60008000       9.76430000      -0.24694200      -0.17984400      -0.22123400 
O       6.40605000       0.75796000       6.40526000      -0.81764500       0.46370300       0.17626100 
O       4.46102000       1.92018000       7.62546000      -1.86280900       0.07314000       1.89360800 
O       8.23003000       1.10695000      10.17373000       1.09369200       0.74472800      -0.93944600 
O       6.09424000       3.43246000       6.29974000       1.07138600      -1.82622100       0.91489700 
O       6.87691000       2.28709000       8.46728000      -0.37315000       0.42205900      -0.80134200 
O       4.17109000       3.45913000       9.82884000      -0.25221900       0.00688200      -0.44753900 
O      -0.84125000       5.14750000       6.25432000      -0.35072800       0.27661200       0.35290100 
O      -2.81924000       6.24461000       7.82584000      -0.15921300      -0.74140400       0.64748100 
O       1.04617000       4.99678000       9.96808000       0.39083900       1.05167600      -0.69904700 
O      -1.46036000       7.60131000       6.22608000       0.34885300       0.94945300      -0.60883900 
O      -0.29635000       6.64401000       8.36804000      -0.52559500      -0.28202700      -0.22410100 
O      -3.57014000       7.77012000       9.93547000      -0.47766500      -1.90265800      -1.61629100 
O       4.06391000       5.01794000       6.27855000      -0.32215100       0.40868300       1.11252100 
O       2.00250000       5.77495000       7.68420000       2.39928700       0.00914600      -1.47369300 
O       6.15429000       5.12462000      10.10841000      -0.22469200       0.53296700      -0.48778000 
O       3.44500000       7.53870000       6.24878000      -0.74873700      -0.24236300       0.35425200 
O       4.51266000       6.50807000       8.47322000      -0.61505500      -0.55615900      -0.76644100 
O       1.77303000       7.50175000       9.66127000      -0.38164300      -0.82742300      -1.15779500 
72
Lattice="9.832 0.0 0.0 -4.916 8.515 0.0 0.0 0.0 10.811" Properties=species:S:1:pos:R:3:forces:R:3 energy=-619.96418 pbc="T T T"
Si       2.44176000       0.02245000      10.78240000       1.05633500      -2.13515500       1.31051700 
Si      -1.10330000       2.20215000       3.70006000      -0.69394300      -1.80746600       0.00088800 
Si       1.26378000       2.03654000       1.90556000       0.85744900       0.09432300      -0.39333800 
Si       2.60630000       8.34215000      10.70827000      -0.98400900      -0.56058500       1.28858400 
Si       3.81668000       2.23669000       3.56278000       0.43258900       0.91670600       1.74435000 
Si       6.18050000       1.74576000       1.79288000       0.59941100      -1.00608400       1.13219700 
Si      -0.00695000       4.15933000      10.78687000      -0.78401900       1.20941700       1.15946900 
Si      -3.67688000       6.68827000       3.74563000      -1.01907300      -1.58450200      -1.02753000 
Si      -1.27514000       6.34177000       1.78536000      -0.50255000       1.18026700       0.60627200 
Si       5.13912000       4.15822000       0.05985000       0.28475300      -0.43896300       1.18841000 
Si       1.31608000       6.51164000       3.43601000       0.00396500       0.09550100       0.52998300 
Si       3.79486000       6.34344000       1.81842000       0.27274100      -1.37723900      -0.55179900 
Si       2.52722000       0.18162000       5.54429000       1.00993400       0.34405700      -1.06176500 
Si       8.33794000       2.25254000       9.01501000       0.85803400      -0.70176700       1.17408100 
Si       1.07399000       2.19096000       7.22062000      -0.10066300       1.02142800       0.60404000 
Si       7.40953000       0.08152000       5.40449000       2.89146000      -0.77081500       1.00737100 
Si       3.53097000       2.30693000       8.95480000      -0.40040300      -1.00825200      -0.13029800 
Si       5.93921000       2.07641000       7.16672000       1.12146700      -0.09710700      -0.19503000 
Si       0.10010000       4.41540000       5.21101000       1.53894600      -0.56522300       0.30336800 
Si       5.99816000       6.36689000       9.06733000      -0.05848300       1.63126100       0.80973500 
Si      -1.36703000       6.39767000       7.20682000       0.88986700      -1.45096400      -0.25408300 
Si       5.23807000       4.37860000       5.42936000      -1.62610000       0.22346100      -2.28209800 
Si       1.15844000       6.19708000       8.88285000      -0.31057100       1.06143600       2.92521300 
Si       3.51762000       6.20438000       7.17768000       0.21889900       0.56823700       0.17674200 
O       1.68005000       0.70950000       1.15477000      -0.03405300       0.40056600       0.34646700 
O       0.09446000       1.53782000       2.83945000      -0.59068700       0.74237200       0.78100500 
O       3.48318000       1.26110000       4.81413000      -0.56784600      -0.39324100       0.14176200 
O       0.83505000       3.09422000       0.78079000      -0.16592100      -0.33074200       0.52325200 
O       2.52233000       2.63240000       2.74148000      -0.96528100      -0.20897100      -0.54889400 
O      -0.79883000       3.72141000       4.03875000       0.45558400       0.30608100       0.90999900 
O       6.41184000       0.38144000       0.97420000       0.86925800       0.11939300       0.13557100 
O       4.88454000       1.46001000       2.68720000      -0.07100600       0.11774100       0.02886600 
O       8.51249000       1.22888000       5.02583000      -0.44203700       0.61436200      -1.25653000 
O       5.87293000       2.94284000       0.85858000       0.13789400       1.72087400      -1.53213100 
O       7.41001000       2.12330000       2.81101000      -0.72963300      -0.10326400      -0.73140700 
O       4.39578000       3.61888000       4.23210000       0.68808400      -0.62939600       0.01917900 
O      -0.88894000       5.07889000       1.01102000       0.86071400      -2.74724100      -1.17333400 
O      -2.64091000       6.27228000       2.62795000       0.46872300      -0.26752700      -0.42988700 
O       1.25573000       5.30531000       4.48835000      -1.14948500      -0.24944000       0.81822000 
O      -1.45550000       7.46596000       0.72377000      -0.80204500       2.13832800      -1.92830800 
O      -0.06423000       6.72275000       2.73017000      -0.31649600       0.49504600       0.88518900 
O      -3.33290000       7.99164000       4.47945000       0.20717800       1.18098400      -0.00380600 
O       4.29758000       4.91441000       1.20618000       0.51769000       0.60555000      -0.47688700 
O       2.33319000       6.07356000       2.33173000      -0.09003600      -0.03659900      -0.10983900 
O       6.17648000       5.49909000       4.80666000      -0.01088200      -0.41792800       0.50772000 
O       3.65843000       7.34366000       0.58432000       0.61070500       0.59650100       0.44115400 
O       4.65558000       6.73524000       3.10664000       0.71610800       0.58393700      -0.29166700 
O       1.80090000       7.84623000       4.22105000      -0.44923500      -0.21558500      -0.77993900 
O       1.54967000       0.82751000       6.57453000      -0.16773000       0.35571400       0.90898900 
O      -0.30227000       1.89464000       8.00304000      -0.48261800       0.18282300      -0.41224300 
O       3.22714000       0.99482000       9.86000000       1.29162200       1.13193800      -0.79625600 
O       0.96619000       3.29816000       6.05162000      -0.74709100      -0.04724700      -0.10194200 
O       2.12246000       2.72708000       8.36948000      -0.89782500      -0.01323800      -1.09515600 
O      -1.07762000       3.61492000       9.75491000      -0.58493100      -0.78842400      -0.43513400 
O       6.41029000       0.72358000       6.41816000      -1.37602600       1.21634800       0.64374700 
O       4.46980000       1.93264000       7.66952000      -1.22240100      -0.12577300       0.99476100 
O       8.23123000       1.08529000      10.14254000       1.15962400       0.99713100      -0.84716000 
O       6.11207000       3.42828000       6.29558000       0.67126300      -1.53575400       0.52658600 
O       6.85956000       2.29590000       8.46335000       0.10427000       0.37070500      -0.63384000 
O       4.14158000       3.46239000       9.83500000       0.12304700       0.27611700      -0.25837600 
O      -0.82650000       5.15775000       6.24833000      -0.86251200       0.83016500       1.00408200 
O      -2.83046000       6.25602000       7.82029000       0.05610300      -0.73142400       0.49029300 
O       1.03950000       5.00398000       9.97492000       0.49874500       1.08673200      -0.80311400 